# vtk DataFile Version 2.0
2D-ADE data file 
ASCII
DATASET RECTILINEAR_GRID
DIMENSIONS 128 128 1
X_COORDINATES 128 int
0 1 2 3 4 5 6 7 8 9 10 11 12 13 14 15 16 17 18 19 20 21 22 23 24 25 26 27 28 29 30 31 32 33 34 35 36 37 38 39 40 41 42 43 44 45 46 47 48 49 50 51 52 53 54 55 56 57 58 59 60 61 62 63 64 65 66 67 68 69 70 71 72 73 74 75 76 77 78 79 80 81 82 83 84 85 86 87 88 89 90 91 92 93 94 95 96 97 98 99 100 101 102 103 104 105 106 107 108 109 110 111 112 113 114 115 116 117 118 119 120 121 122 123 124 125 126 127 
Y_COORDINATES 128 int
0 1 2 3 4 5 6 7 8 9 10 11 12 13 14 15 16 17 18 19 20 21 22 23 24 25 26 27 28 29 30 31 32 33 34 35 36 37 38 39 40 41 42 43 44 45 46 47 48 49 50 51 52 53 54 55 56 57 58 59 60 61 62 63 64 65 66 67 68 69 70 71 72 73 74 75 76 77 78 79 80 81 82 83 84 85 86 87 88 89 90 91 92 93 94 95 96 97 98 99 100 101 102 103 104 105 106 107 108 109 110 111 112 113 114 115 116 117 118 119 120 121 122 123 124 125 126 127 
Z_COORDINATES 1 int
0
POINT_DATA 16384 
SCALARS temperature double 1
LOOKUP_TABLE default
1.173889e-26 
5.399992e-26 
4.118299e-27 
-9.296708e-28 
4.499373e-26 
6.809713e-26 
2.484968e-26 
6.993455e-27 
3.447659e-27 
1.081713e-26 
2.381831e-26 
-4.260255e-26 
-3.926698e-26 
-9.687394e-26 
-7.120948e-26 
6.173800e-26 
-2.998274e-26 
-7.575647e-26 
-5.804111e-26 
8.859703e-26 
1.528636e-25 
-6.642231e-26 
-1.555070e-25 
-1.445239e-25 
2.849613e-26 
-2.930890e-25 
-6.784442e-25 
-1.081161e-24 
-1.406320e-24 
-1.615623e-24 
-1.991441e-24 
-1.558020e-24 
-1.845357e-24 
-2.510768e-24 
-4.274001e-24 
-4.413252e-24 
-2.060695e-24 
1.745770e-24 
4.234175e-24 
2.206742e-24 
-1.538187e-24 
-4.540328e-24 
-1.095144e-24 
6.376046e-24 
1.573461e-23 
1.979052e-23 
1.755215e-23 
9.801479e-24 
1.646985e-24 
-2.104754e-24 
-1.775383e-25 
8.509217e-24 
1.725985e-23 
2.680355e-23 
3.061675e-23 
3.001597e-23 
2.528675e-23 
1.593275e-23 
5.099443e-24 
-4.138042e-24 
-1.214327e-23 
-2.274195e-23 
-3.212743e-23 
-2.490564e-23 
-4.349164e-23 
-3.373556e-23 
-4.136736e-23 
-3.516648e-23 
-3.349427e-23 
-2.510516e-23 
-1.956590e-23 
-1.315928e-23 
-1.032432e-23 
-1.031450e-23 
-1.572809e-23 
-1.911628e-23 
-2.431833e-23 
-2.177493e-23 
-1.680778e-23 
-6.401438e-24 
2.327495e-24 
9.266139e-24 
1.143002e-23 
1.018429e-23 
7.338853e-24 
2.853262e-24 
4.886491e-25 
-1.813048e-24 
1.840944e-25 
1.849816e-24 
4.845108e-24 
3.850728e-24 
1.778092e-24 
-1.329765e-24 
-2.007720e-24 
-6.761732e-25 
5.000216e-25 
7.736864e-25 
-6.602624e-25 
-8.772856e-25 
-5.720149e-25 
4.956232e-25 
5.669042e-25 
1.602500e-25 
-4.054533e-28 
1.455538e-25 
4.658019e-25 
2.695616e-25 
-3.250155e-26 
-7.413658e-26 
3.073272e-26 
5.529493e-26 
-1.225885e-25 
-2.075721e-25 
-1.015909e-25 
-8.312413e-26 
-1.068239e-25 
-1.295663e-25 
-9.078450e-26 
-3.840317e-26 
-5.619756e-26 
-4.813847e-26 
-4.266214e-26 
-1.361790e-26 
-2.925605e-27 
-2.357311e-26 
2.833072e-27 
-1.847644e-26 
1.297368e-26 
-1.410895e-26 
5.123077e-26 
5.643006e-26 
2.179522e-26 
3.459513e-26 
9.269805e-27 
7.610272e-26 
5.765385e-27 
-2.474646e-26 
5.037164e-26 
-9.755880e-26 
-6.021684e-26 
-3.513061e-26 
3.169189e-26 
-3.637597e-26 
-2.329138e-25 
1.007909e-26 
9.340141e-26 
1.385237e-25 
-8.178914e-26 
-2.627255e-25 
-1.002711e-25 
6.387210e-26 
6.247611e-26 
-4.431490e-25 
-1.017531e-24 
-1.367373e-24 
-1.050045e-24 
-8.979102e-25 
-1.179879e-24 
-2.597190e-24 
-3.801858e-24 
-3.648016e-24 
-1.951332e-24 
3.039304e-25 
1.891423e-25 
-1.398858e-24 
-3.987395e-24 
-2.969512e-24 
1.048531e-24 
7.736139e-24 
1.222324e-23 
1.262732e-23 
8.733137e-24 
2.762733e-24 
-5.386104e-25 
-2.392725e-25 
6.802629e-24 
1.573922e-23 
2.798584e-23 
3.507861e-23 
4.065662e-23 
3.772056e-23 
3.382686e-23 
2.399650e-23 
1.888599e-23 
1.109287e-23 
1.153955e-23 
7.258503e-24 
1.456397e-23 
7.929811e-24 
1.071200e-23 
1.351148e-23 
3.913989e-24 
1.179473e-24 
-3.568421e-24 
-1.441833e-23 
-2.418265e-23 
-3.247950e-23 
-4.205900e-23 
-5.256758e-23 
-5.217117e-23 
-5.317398e-23 
-4.261939e-23 
-3.220959e-23 
-1.510613e-23 
-3.729323e-24 
7.530772e-24 
9.733013e-24 
9.338694e-24 
4.471532e-24 
8.775963e-25 
4.024974e-26 
1.159228e-24 
5.472459e-24 
5.940225e-24 
7.150521e-24 
2.646942e-24 
1.775140e-24 
-1.467065e-24 
2.750628e-25 
-1.806685e-27 
1.261633e-24 
6.926670e-25 
-3.805138e-25 
-5.541929e-25 
-1.594721e-24 
-9.444875e-26 
-4.800105e-25 
6.101434e-25 
-2.149109e-25 
-9.304466e-26 
1.092858e-25 
1.931545e-25 
6.325664e-25 
-1.235393e-25 
9.120993e-26 
-4.751002e-26 
1.384842e-25 
2.429765e-26 
-2.992573e-25 
-5.703840e-26 
-1.099057e-25 
-8.522186e-26 
-1.897215e-25 
-1.657223e-25 
-3.258701e-26 
-9.960080e-26 
-8.179444e-26 
-7.392245e-26 
-2.769555e-26 
-3.953750e-27 
-5.154335e-26 
-1.500895e-26 
-5.172188e-27 
-1.186466e-26 
2.937104e-26 
2.590006e-26 
3.155908e-26 
3.708438e-26 
2.938649e-26 
3.568983e-26 
4.727108e-26 
5.196365e-26 
-1.784959e-27 
2.322665e-26 
2.376851e-26 
-8.449762e-26 
-1.653831e-27 
4.291801e-27 
-8.322241e-26 
-1.432582e-25 
-1.491748e-25 
1.562321e-25 
4.533332e-26 
-1.923658e-25 
-1.917152e-25 
-8.526162e-26 
2.905546e-25 
5.976734e-26 
-3.531182e-25 
-6.918997e-25 
-4.860258e-25 
-2.521593e-25 
-5.334721e-25 
-1.246939e-24 
-1.981669e-24 
-2.142628e-24 
-2.493441e-24 
-2.030902e-24 
-2.018375e-24 
-1.267101e-24 
-2.048554e-24 
-2.756234e-24 
-3.091572e-24 
-1.059798e-24 
3.338332e-24 
6.670612e-24 
8.135556e-24 
4.400702e-24 
1.349661e-24 
-1.153108e-24 
4.313657e-24 
1.251218e-23 
2.490626e-23 
3.160736e-23 
3.449679e-23 
2.825636e-23 
1.988633e-23 
1.076586e-23 
6.635543e-24 
6.703809e-24 
1.309277e-23 
1.811195e-23 
2.573594e-23 
2.666805e-23 
2.277252e-23 
1.661817e-23 
4.488835e-24 
-7.441410e-24 
-1.511366e-23 
-2.593696e-23 
-3.510695e-23 
-3.250120e-23 
-3.884382e-23 
-4.256179e-23 
-3.683539e-23 
-4.006184e-23 
-3.708959e-23 
-3.332310e-23 
-2.453219e-23 
-1.761499e-23 
-8.205605e-24 
-3.469788e-24 
-5.476277e-25 
-2.726939e-24 
-3.082856e-24 
-4.034257e-24 
-2.969139e-25 
2.504545e-24 
5.876333e-24 
5.568995e-24 
4.954643e-24 
3.824054e-24 
3.536325e-24 
3.511371e-24 
1.739351e-24 
7.375149e-25 
-9.238265e-25 
3.323172e-25 
2.770103e-25 
6.137777e-25 
-8.742363e-25 
-1.401108e-24 
-8.694538e-25 
-3.375793e-25 
3.822739e-25 
-4.490006e-25 
-1.378540e-25 
-2.066923e-25 
3.226124e-25 
2.761004e-25 
-3.344872e-26 
1.796179e-25 
-5.622021e-26 
1.228657e-25 
-1.571169e-25 
-1.341850e-25 
-4.965220e-26 
-2.032310e-25 
-1.102298e-25 
-2.090363e-25 
-1.011340e-25 
-1.433955e-25 
-1.691384e-25 
-6.578640e-26 
-8.670905e-26 
-3.376740e-26 
-8.395555e-26 
-4.237035e-26 
6.780672e-27 
-4.531582e-26 
3.716714e-27 
7.561395e-28 
-6.305583e-27 
2.951330e-26 
3.764509e-26 
-6.221880e-28 
6.247617e-26 
6.094319e-26 
1.605132e-26 
4.365477e-26 
-1.177345e-26 
3.795628e-26 
-4.406180e-27 
-5.657031e-26 
4.936877e-27 
-1.562451e-25 
-4.312143e-26 
-4.184653e-26 
-2.713390e-26 
-1.068400e-25 
-2.747021e-25 
6.262561e-26 
-9.832431e-28 
1.980401e-26 
-1.833470e-25 
-2.724852e-25 
-1.438218e-25 
-2.173600e-25 
-4.561061e-25 
-7.601257e-25 
-8.144292e-25 
-1.131702e-24 
-1.573945e-24 
-2.513804e-24 
-1.856892e-24 
-1.512187e-24 
-1.223414e-24 
-2.991642e-24 
-4.226787e-24 
-2.805263e-24 
3.820328e-25 
4.469823e-24 
3.569578e-24 
1.762432e-24 
-2.061921e-24 
9.063562e-25 
6.148652e-24 
1.579673e-23 
2.054363e-23 
2.167779e-23 
1.591250e-23 
9.472307e-24 
4.912878e-24 
5.492750e-24 
1.266054e-23 
2.267989e-23 
3.331553e-23 
3.873786e-23 
3.903294e-23 
2.667267e-23 
1.470320e-23 
-8.275040e-24 
-2.733399e-23 
-5.068924e-23 
-6.067202e-23 
-7.807580e-23 
-8.144176e-23 
-8.472343e-23 
-8.862955e-23 
-7.732451e-23 
-7.384157e-23 
-6.713721e-23 
-4.968836e-23 
-4.224721e-23 
-2.926731e-23 
-2.515072e-23 
-1.713743e-23 
-1.837939e-23 
-1.647310e-23 
-1.707222e-23 
-1.315724e-23 
-1.018379e-23 
-4.869300e-24 
-7.360522e-25 
2.586042e-24 
6.357786e-24 
7.752862e-24 
1.003595e-23 
6.699139e-24 
5.018401e-24 
-4.422163e-25 
1.632515e-25 
-5.339305e-25 
2.443428e-24 
1.513467e-24 
6.451051e-25 
-9.879654e-25 
-1.626009e-24 
-3.521832e-25 
-7.697988e-25 
1.567839e-26 
-1.264452e-24 
-3.939785e-25 
-4.130597e-25 
2.095871e-25 
2.016378e-25 
-2.066003e-25 
8.234336e-26 
-1.625021e-25 
2.383259e-25 
-3.167397e-26 
-1.188933e-25 
-1.675614e-25 
-1.825527e-25 
-6.450150e-26 
-2.231617e-25 
-2.342247e-25 
-1.852797e-25 
-1.545616e-25 
-1.190826e-25 
-1.728025e-25 
-1.430093e-25 
-8.075398e-26 
-6.839816e-26 
-4.333764e-26 
-7.315956e-26 
-3.399451e-26 
-4.283340e-27 
-2.547868e-26 
2.063839e-27 
3.699432e-27 
-1.962945e-26 
3.387494e-26 
6.977464e-26 
2.079441e-26 
2.937036e-26 
3.384195e-26 
2.618321e-26 
5.897938e-26 
-4.369269e-26 
-6.564915e-26 
3.635045e-26 
-1.069510e-25 
-6.325900e-26 
-5.275328e-26 
-1.276099e-25 
-1.010276e-25 
-2.191843e-25 
1.268125e-26 
-5.857839e-26 
-1.945705e-25 
-7.302984e-26 
-2.452404e-25 
-8.671866e-26 
-1.891774e-25 
-4.052119e-25 
-4.651917e-25 
-7.451958e-25 
-9.115628e-25 
-1.299065e-24 
-1.715361e-24 
-1.446886e-24 
-1.763410e-24 
-2.303539e-24 
-2.992954e-24 
-2.753474e-24 
-7.522589e-25 
-8.861739e-26 
3.372649e-26 
-2.342697e-24 
-1.789650e-24 
7.719909e-25 
7.122148e-24 
1.189288e-23 
1.363463e-23 
1.075396e-23 
5.803238e-24 
2.728006e-24 
3.848521e-24 
1.181963e-23 
2.267509e-23 
3.550177e-23 
4.388941e-23 
4.640710e-23 
4.041609e-23 
3.057281e-23 
1.591201e-23 
2.225131e-24 
-6.106016e-24 
-1.104702e-23 
-1.254556e-23 
-1.283715e-23 
-5.249865e-24 
-8.439109e-24 
-9.495150e-24 
-9.705418e-24 
-1.974417e-23 
-1.913167e-23 
-3.012588e-23 
-3.160033e-23 
-3.754892e-23 
-3.673816e-23 
-3.915741e-23 
-3.762666e-23 
-3.863318e-23 
-3.339690e-23 
-3.298719e-23 
-2.422441e-23 
-1.634457e-23 
-2.246637e-24 
7.164968e-24 
1.576069e-23 
1.434478e-23 
9.449835e-24 
1.577448e-24 
-2.442948e-24 
-1.228907e-24 
1.839127e-24 
6.248848e-24 
4.892391e-24 
4.438710e-24 
-9.206835e-26 
-1.474516e-26 
-2.132009e-24 
-8.553096e-25 
-1.090667e-24 
-4.073008e-25 
2.585105e-26 
-9.648733e-25 
-3.201972e-25 
-1.300608e-24 
7.417251e-26 
-4.121523e-25 
1.339728e-25 
-1.863326e-26 
-1.434142e-25 
1.448377e-25 
-4.240929e-25 
1.464218e-27 
-2.068790e-25 
-7.183190e-26 
-2.737842e-25 
-3.950413e-25 
-1.134126e-25 
-2.104712e-25 
-1.941543e-25 
-3.063616e-25 
-1.955619e-25 
-7.080712e-26 
-1.506500e-25 
-1.326117e-25 
-1.411306e-25 
-3.504674e-26 
-2.511112e-26 
-9.510598e-26 
-1.399802e-26 
-1.633656e-26 
-2.531504e-27 
2.657774e-26 
3.085610e-26 
2.642823e-26 
3.478411e-26 
3.342109e-27 
4.785375e-26 
7.046024e-26 
-1.627604e-26 
-3.917710e-27 
-2.113801e-26 
1.435126e-26 
-7.786165e-26 
-1.098496e-25 
2.152946e-26 
-2.058036e-25 
-1.343197e-25 
-9.146308e-26 
-8.314058e-26 
-1.229690e-25 
-4.062519e-25 
-1.413536e-26 
-1.230644e-25 
-1.417165e-25 
-2.476288e-25 
-5.614458e-25 
-1.956706e-25 
-3.877891e-25 
-7.024566e-25 
-1.401558e-24 
-1.753887e-24 
-1.051097e-24 
-9.947779e-25 
-1.960391e-24 
-2.973082e-24 
-3.274971e-24 
-1.533499e-24 
-1.143732e-24 
-1.202303e-24 
-2.099521e-24 
-8.565348e-25 
2.273104e-24 
4.755781e-24 
5.257207e-24 
2.442767e-24 
9.741566e-25 
2.586977e-24 
1.024886e-23 
2.103441e-23 
3.189436e-23 
3.816511e-23 
3.681506e-23 
3.008325e-23 
1.866019e-23 
8.955640e-24 
3.801995e-24 
6.501638e-24 
1.448924e-23 
2.563317e-23 
3.755008e-23 
4.526720e-23 
4.474015e-23 
3.993348e-23 
3.218466e-23 
1.827104e-23 
2.993749e-24 
-7.276571e-24 
-1.493346e-23 
-2.216788e-23 
-2.910186e-23 
-2.475749e-23 
-3.389560e-23 
-3.011153e-23 
-2.978681e-23 
-2.463255e-23 
-2.137385e-23 
-1.086386e-23 
-6.529322e-24 
-4.426630e-24 
-6.338493e-24 
-1.029190e-23 
-1.189043e-23 
-9.264184e-24 
-1.667133e-25 
7.395471e-24 
1.337515e-23 
1.041314e-23 
6.684512e-24 
5.378559e-25 
2.850129e-25 
3.253263e-25 
2.149281e-24 
2.003084e-24 
1.042816e-24 
7.627238e-25 
-7.871768e-25 
-5.684727e-25 
-1.913733e-24 
-8.490418e-25 
-7.647017e-25 
-1.956377e-25 
-2.804660e-25 
-7.320928e-25 
-9.043582e-26 
-3.554485e-25 
8.567056e-26 
-3.413596e-25 
-2.084535e-25 
-1.342250e-25 
-3.579648e-25 
-2.857927e-25 
-3.924004e-25 
-1.776321e-25 
-2.980201e-25 
-3.961767e-25 
-3.245360e-25 
-2.521113e-25 
-1.330173e-25 
-2.547673e-25 
-2.567940e-25 
-1.377738e-25 
-9.869875e-26 
-9.184495e-26 
-1.575018e-25 
-7.136423e-26 
-1.037245e-26 
-5.855654e-26 
-1.916841e-26 
-1.864791e-26 
-4.497792e-27 
4.155393e-26 
-3.139025e-26 
1.713090e-26 
9.764358e-26 
-2.491536e-27 
-1.990264e-26 
3.257122e-26 
1.853784e-27 
1.644009e-26 
-6.867765e-26 
-9.863479e-26 
-1.486901e-26 
-1.754218e-25 
-7.381862e-26 
-2.326432e-26 
-2.928629e-25 
-2.469217e-25 
-2.281209e-25 
4.354644e-26 
-1.582432e-25 
-5.799603e-25 
-2.593952e-25 
-3.376577e-25 
2.325032e-27 
-3.540970e-25 
-1.090435e-24 
-1.022134e-24 
-1.169637e-24 
-5.508212e-25 
-1.500753e-24 
-2.782486e-24 
-2.596022e-24 
-1.953178e-24 
-7.621944e-25 
-2.382492e-24 
-3.653781e-24 
-3.279498e-24 
-6.013059e-25 
2.085680e-24 
1.357190e-24 
-1.011089e-24 
-2.231671e-24 
1.314378e-24 
9.558052e-24 
1.746552e-23 
2.280500e-23 
2.085176e-23 
1.637297e-23 
8.651533e-24 
6.287241e-24 
7.728039e-24 
1.640111e-23 
2.872587e-23 
4.260725e-23 
5.262147e-23 
5.534778e-23 
4.916435e-23 
3.185344e-23 
1.080603e-23 
-2.139517e-23 
-4.496528e-23 
-7.443382e-23 
-8.909026e-23 
-1.088169e-22 
-1.141048e-22 
-1.094611e-22 
-1.107358e-22 
-1.032315e-22 
-8.404041e-23 
-7.949864e-23 
-6.690364e-23 
-5.377678e-23 
-4.598936e-23 
-3.659617e-23 
-2.747898e-23 
-1.302804e-23 
-4.113093e-24 
7.634356e-24 
9.306987e-24 
7.989553e-24 
-1.692465e-24 
-6.398958e-24 
-7.715355e-24 
-8.110767e-25 
7.600726e-24 
1.208897e-23 
1.189030e-23 
5.051432e-24 
1.763518e-24 
-2.307580e-24 
3.389040e-25 
1.735576e-26 
2.103224e-24 
8.284387e-25 
9.104097e-26 
-8.825544e-25 
-1.940599e-24 
-5.814542e-25 
-6.682434e-25 
4.927589e-25 
-4.996389e-25 
-5.359359e-25 
-4.293521e-25 
-3.423676e-25 
1.958425e-27 
-5.936432e-25 
-3.196062e-25 
-4.913369e-25 
-3.932402e-25 
-5.114244e-25 
-5.456237e-25 
-3.022232e-25 
-4.001514e-25 
-3.025552e-25 
-4.127439e-25 
-3.153156e-25 
-1.731334e-25 
-1.978332e-25 
-1.955569e-25 
-2.265642e-25 
-9.261925e-26 
-8.099011e-26 
-1.271499e-25 
-5.329091e-26 
-5.731052e-26 
-2.777809e-26 
-2.139978e-26 
-5.988820e-27 
-1.836474e-26 
6.930433e-26 
-7.981934e-28 
-2.077105e-26 
1.430499e-26 
4.287397e-26 
3.154623e-26 
-5.502425e-26 
-4.657796e-26 
-2.616115e-26 
-1.932569e-26 
-8.812134e-26 
-1.475666e-25 
-6.191836e-26 
-3.059845e-25 
-1.596979e-25 
-4.109447e-27 
-2.609929e-25 
-3.560059e-25 
-6.381947e-25 
-5.640056e-26 
-1.446311e-25 
-3.760661e-25 
-4.742801e-25 
-1.187532e-24 
-5.045132e-25 
-7.747669e-25 
-6.789605e-25 
-1.619546e-24 
-2.818657e-24 
-1.888864e-24 
-1.916186e-24 
-1.731050e-24 
-3.395899e-24 
-3.499241e-24 
-1.937725e-24 
-8.365523e-25 
-1.786307e-24 
-4.348373e-24 
-5.168833e-24 
-5.513006e-25 
5.632136e-24 
1.203482e-23 
1.093845e-23 
7.209021e-24 
9.223768e-25 
2.086358e-25 
4.944428e-24 
1.547363e-23 
3.063917e-23 
4.260985e-23 
5.463667e-23 
5.686853e-23 
5.734799e-23 
4.477360e-23 
3.330069e-23 
1.168486e-23 
-6.666531e-24 
-2.625197e-23 
-4.338899e-23 
-5.581385e-23 
-6.813019e-23 
-7.306012e-23 
-8.382297e-23 
-9.119297e-23 
-8.659867e-23 
-1.037172e-22 
-9.541858e-23 
-9.412644e-23 
-8.303101e-23 
-7.859973e-23 
-5.854138e-23 
-5.161588e-23 
-3.889007e-23 
-3.916522e-23 
-3.464744e-23 
-3.265821e-23 
-2.491338e-23 
-1.009971e-23 
5.152837e-24 
1.832998e-23 
1.897481e-23 
1.490212e-23 
2.758562e-24 
-1.499650e-24 
-3.553624e-24 
2.904467e-24 
6.408701e-24 
8.379285e-24 
6.494689e-24 
2.475986e-24 
1.070623e-24 
-1.612572e-24 
4.033674e-25 
-2.236667e-25 
1.452884e-24 
-8.368377e-26 
-8.750656e-25 
-9.244482e-25 
-6.246409e-25 
6.347816e-25 
-3.589570e-25 
-4.984981e-25 
-7.992238e-25 
-3.444414e-25 
-2.521033e-25 
-8.199525e-25 
-7.232606e-25 
-7.355163e-25 
-4.281086e-25 
-6.212757e-25 
-6.636563e-25 
-5.147819e-25 
-4.354456e-25 
-2.386212e-25 
-4.015747e-25 
-3.573363e-25 
-2.353244e-25 
-1.817808e-25 
-1.496785e-25 
-2.228955e-25 
-1.165369e-25 
-8.036482e-26 
-1.031842e-25 
-6.128619e-26 
-4.647899e-26 
-2.930494e-28 
-4.750006e-26 
-4.506647e-26 
-5.393979e-27 
-1.668565e-26 
3.670907e-27 
6.868623e-26 
-5.255326e-26 
-5.199234e-26 
4.063418e-26 
-8.056233e-27 
-5.580988e-26 
-8.946825e-26 
-9.715170e-26 
-3.541789e-26 
-2.282111e-25 
-1.504003e-25 
-3.778897e-27 
-4.284260e-25 
-3.897184e-25 
-3.351472e-25 
-1.388553e-25 
-2.629587e-25 
-8.048316e-25 
-4.423638e-25 
-8.414701e-25 
-3.501871e-25 
-5.649922e-25 
-1.349360e-24 
-1.499149e-24 
-2.389935e-24 
-9.411985e-25 
-1.809110e-24 
-3.140370e-24 
-4.168136e-24 
-3.563847e-24 
-1.169297e-24 
-1.871786e-24 
-4.778820e-24 
-6.657096e-24 
-5.470039e-24 
8.988720e-25 
3.338995e-24 
2.955849e-24 
-3.081345e-24 
-5.699960e-24 
-1.260893e-24 
8.516901e-24 
2.331018e-23 
3.025412e-23 
3.843784e-23 
3.470788e-23 
3.762216e-23 
3.254337e-23 
3.607299e-23 
3.092303e-23 
2.850919e-23 
1.896877e-23 
8.952800e-24 
-4.012313e-24 
-1.433485e-23 
-2.529956e-23 
-3.424554e-23 
-4.389279e-23 
-4.676043e-23 
-5.951138e-23 
-5.734510e-23 
-5.954040e-23 
-7.506878e-23 
-6.343039e-23 
-7.511824e-23 
-6.856317e-23 
-6.965945e-23 
-6.475761e-23 
-5.194616e-23 
-3.676877e-23 
-2.097870e-23 
-1.329400e-23 
-4.335562e-24 
-1.220399e-23 
-1.517136e-23 
-2.147462e-23 
-1.439075e-23 
-5.330036e-24 
8.488952e-24 
1.637851e-23 
1.593230e-23 
1.229913e-23 
4.116791e-24 
3.725314e-24 
1.134075e-24 
5.410237e-24 
4.196132e-24 
5.118599e-24 
2.423100e-24 
2.304514e-25 
-3.125497e-26 
-5.928853e-25 
2.050079e-24 
6.083070e-25 
2.857532e-25 
-1.505884e-24 
-7.059097e-25 
5.414892e-25 
2.328721e-25 
-5.010670e-25 
-1.505454e-24 
-8.129959e-25 
-5.612346e-25 
-6.408577e-25 
-1.041741e-24 
-1.125706e-24 
-6.741762e-25 
-6.440543e-25 
-4.990154e-25 
-6.974591e-25 
-5.504465e-25 
-2.458803e-25 
-3.138626e-25 
-3.414089e-25 
-3.264729e-25 
-1.566160e-25 
-1.575433e-25 
-1.774900e-25 
-1.238463e-25 
-1.203341e-25 
-3.284527e-26 
-9.474033e-26 
-5.942738e-26 
3.451645e-26 
-3.887773e-26 
-4.717978e-26 
4.533480e-26 
-3.402211e-26 
-7.185077e-26 
1.873269e-26 
3.125867e-26 
-4.048688e-26 
-8.613451e-26 
-3.268081e-26 
-8.727790e-27 
-7.914633e-26 
-1.612320e-25 
-1.149746e-25 
-2.721009e-26 
-4.277227e-25 
-3.343327e-25 
-5.077645e-26 
-4.145362e-25 
-4.764153e-25 
-7.639117e-25 
-3.515627e-25 
-5.673214e-25 
-7.538377e-25 
-5.616033e-25 
-1.467535e-24 
-9.461939e-25 
-1.704126e-24 
-1.380461e-24 
-2.369580e-24 
-4.007197e-24 
-2.642750e-24 
-2.086831e-24 
-1.881148e-24 
-5.359107e-24 
-9.014521e-24 
-6.486205e-24 
-2.953898e-24 
2.023329e-24 
-2.455554e-24 
-8.883999e-24 
-1.236025e-23 
-7.933402e-24 
6.820564e-24 
1.489529e-23 
2.228056e-23 
1.366961e-23 
1.401753e-23 
1.071866e-23 
2.319881e-23 
3.097953e-23 
4.009381e-23 
3.461744e-23 
2.263369e-23 
7.675623e-25 
-1.748905e-23 
-3.548698e-23 
-4.210696e-23 
-5.154330e-23 
-5.191269e-23 
-6.069733e-23 
-7.017181e-23 
-7.512205e-23 
-8.978827e-23 
-7.474769e-23 
-8.422950e-23 
-8.060815e-23 
-5.948187e-23 
-5.694633e-23 
-4.832679e-23 
-4.001768e-23 
-5.388296e-23 
-5.450482e-23 
-5.816480e-23 
-5.605197e-23 
-4.369062e-23 
-2.496406e-23 
5.519267e-25 
1.099916e-23 
1.987239e-23 
9.509370e-24 
4.494469e-24 
-7.669071e-24 
-3.173925e-24 
-7.520764e-25 
9.897620e-24 
1.346540e-23 
1.395739e-23 
1.119063e-23 
4.396191e-24 
3.981959e-24 
6.373246e-25 
4.932734e-24 
3.125571e-24 
3.467074e-24 
1.768965e-25 
-9.188094e-25 
1.027920e-24 
1.307320e-24 
2.074638e-24 
-9.694569e-25 
-1.081070e-24 
-6.878643e-25 
2.340819e-25 
-3.820745e-25 
-1.519685e-24 
-1.369119e-24 
-1.221470e-24 
-7.572215e-25 
-1.088229e-24 
-1.155533e-24 
-9.746181e-25 
-7.796411e-25 
-3.813972e-25 
-6.387338e-25 
-6.158700e-25 
-3.832585e-25 
-2.635701e-25 
-2.602088e-25 
-3.526989e-25 
-2.016141e-25 
-1.653343e-25 
-1.228500e-25 
-1.394018e-25 
-1.309892e-25 
-2.331882e-26 
-7.952299e-26 
-3.348392e-26 
2.256529e-26 
-6.656861e-26 
-6.809343e-26 
-1.616596e-26 
-3.900290e-26 
2.705025e-26 
-9.287317e-26 
-8.865659e-26 
5.513714e-26 
-2.633930e-26 
-1.263722e-25 
-9.632040e-26 
-4.085148e-26 
-6.079535e-26 
-3.278502e-25 
-1.807483e-25 
-2.925916e-26 
-6.111461e-25 
-5.397119e-25 
-3.674462e-25 
-4.057564e-25 
-6.326643e-25 
-9.754944e-25 
-5.429526e-25 
-1.197169e-24 
-1.040573e-24 
-1.202638e-24 
-1.797148e-24 
-1.942131e-24 
-3.575922e-24 
-1.939598e-24 
-2.216430e-24 
-4.703692e-24 
-6.516523e-24 
-8.631974e-24 
-2.814016e-24 
-2.605509e-24 
-4.384642e-24 
-1.261438e-23 
-1.761213e-23 
-9.757802e-24 
-1.136187e-24 
1.173061e-23 
3.566260e-24 
-2.074321e-24 
-1.373431e-23 
-2.518701e-24 
1.487042e-23 
3.734582e-23 
4.706744e-23 
3.765856e-23 
1.878059e-23 
-6.755882e-24 
-1.441676e-23 
-1.555956e-23 
5.687405e-24 
2.123327e-23 
4.317428e-23 
3.204768e-23 
3.032689e-23 
-1.592472e-25 
-3.149978e-23 
-6.607557e-23 
-8.124997e-23 
-9.522011e-23 
-1.127137e-22 
-1.209924e-22 
-1.063028e-22 
-9.646350e-23 
-7.480211e-23 
-4.767041e-23 
-3.018036e-23 
-1.823138e-23 
-1.097077e-23 
-2.440745e-23 
-3.286093e-23 
-5.106968e-23 
-4.683779e-23 
-4.059343e-23 
-1.996193e-23 
1.769914e-24 
1.720664e-23 
2.625207e-23 
1.888799e-23 
1.503235e-23 
1.715382e-24 
4.196020e-24 
2.464800e-24 
1.167840e-23 
1.219910e-23 
1.133598e-23 
6.684954e-24 
8.208327e-25 
2.614391e-24 
1.664017e-24 
5.521481e-24 
1.844642e-24 
6.897002e-25 
-2.974055e-25 
9.058764e-25 
2.414762e-24 
-4.929683e-27 
-1.039284e-24 
-1.712796e-24 
-1.999332e-25 
-7.446553e-25 
-1.445722e-24 
-1.848083e-24 
-1.641111e-24 
-9.773548e-25 
-1.105659e-24 
-9.841667e-25 
-1.171124e-24 
-9.009209e-25 
-4.353719e-25 
-5.079482e-25 
-5.375829e-25 
-4.888182e-25 
-3.223437e-25 
-2.700015e-25 
-2.417430e-25 
-2.492572e-25 
-2.128631e-25 
-7.188521e-26 
-1.694789e-25 
-7.414072e-26 
-5.311405e-26 
-1.297032e-25 
-9.582591e-26 
-8.723940e-26 
-6.216160e-26 
-1.475319e-26 
-5.821594e-26 
-1.336533e-25 
-4.859505e-26 
7.832338e-26 
-1.231140e-25 
-1.529975e-25 
8.694096e-27 
-3.064645e-26 
-8.446106e-26 
-2.145224e-25 
-8.180747e-26 
-1.098508e-25 
-5.748791e-25 
-3.060053e-25 
-5.863513e-26 
-6.690612e-25 
-8.984799e-25 
-7.448266e-25 
-4.245471e-25 
-8.446593e-25 
-1.170837e-24 
-9.397267e-25 
-1.984796e-24 
-1.888938e-24 
-2.606395e-24 
-1.816161e-24 
-1.904326e-24 
-6.492716e-24 
-5.714248e-24 
-6.733202e-24 
-2.084908e-24 
-5.351849e-24 
-1.299360e-23 
-1.639414e-23 
-1.732521e-23 
-1.728457e-24 
-9.647948e-25 
-8.489671e-25 
-2.044742e-23 
-2.416654e-23 
-1.508861e-23 
1.101207e-23 
3.732310e-23 
3.692076e-23 
2.408062e-23 
-1.115392e-23 
-2.026322e-23 
-2.087661e-23 
2.138319e-23 
5.426351e-23 
9.720443e-23 
9.370090e-23 
8.794283e-23 
3.701113e-23 
-1.207851e-23 
-5.688637e-23 
-7.443446e-23 
-1.149427e-22 
-1.135574e-22 
-8.724873e-23 
-9.800049e-23 
-9.059227e-23 
-9.759661e-23 
-1.075516e-22 
-9.783805e-23 
-1.053417e-22 
-9.168817e-23 
-7.928581e-23 
-4.639656e-23 
-3.266628e-23 
2.259891e-24 
4.519174e-24 
1.406512e-23 
-7.761053e-24 
-1.149607e-23 
-3.592122e-23 
-3.172687e-23 
-3.211619e-23 
-8.980197e-24 
7.892799e-24 
2.606394e-23 
3.178448e-23 
2.258038e-23 
1.423614e-23 
2.903893e-25 
5.243021e-24 
5.382701e-24 
1.344638e-23 
9.000759e-24 
4.755496e-24 
9.488860e-25 
-9.629041e-26 
5.015229e-24 
3.704312e-24 
3.292017e-24 
-7.953049e-25 
-1.859897e-25 
1.355464e-24 
9.689404e-25 
-8.390955e-25 
-2.433043e-24 
-1.227685e-24 
-1.300189e-24 
-1.178902e-24 
-1.898907e-24 
-1.848020e-24 
-1.435288e-24 
-1.171575e-24 
-7.640611e-25 
-1.031287e-24 
-9.329705e-25 
-6.532235e-25 
-4.553244e-25 
-4.483193e-25 
-4.595195e-25 
-3.823261e-25 
-3.371750e-25 
-1.772085e-25 
-2.732923e-25 
-1.756562e-25 
-8.149553e-26 
-1.901614e-25 
-6.863490e-26 
-6.467211e-26 
-1.577426e-25 
2.855395e-26 
-1.511440e-25 
-1.609440e-25 
-2.328962e-26 
-9.226754e-26 
-8.624546e-27 
-1.916964e-25 
-1.517517e-25 
1.092851e-25 
-1.084385e-25 
-1.579257e-25 
-1.257957e-25 
-4.464815e-26 
-9.575332e-26 
-3.777062e-25 
-6.309143e-26 
-1.724313e-25 
-8.421971e-25 
-6.552149e-25 
-1.435133e-25 
-4.087682e-25 
-1.147969e-24 
-1.184674e-24 
-6.513904e-25 
-1.433114e-24 
-1.735464e-24 
-1.710287e-24 
-2.177621e-24 
-1.906361e-24 
-6.362472e-24 
-4.132129e-24 
-4.128792e-24 
-4.693038e-24 
-8.335736e-24 
-1.813269e-23 
-1.275231e-23 
-1.207411e-23 
-3.536176e-25 
-1.198587e-23 
-2.423865e-23 
-3.472714e-23 
-2.519640e-23 
6.970643e-24 
2.220051e-23 
2.874893e-23 
-9.315490e-24 
-2.978066e-23 
-4.879395e-23 
-1.251904e-23 
2.765389e-23 
8.256613e-23 
9.476124e-23 
7.670910e-23 
2.175062e-23 
-4.312861e-23 
-8.665100e-23 
-1.123269e-22 
-1.158021e-22 
-7.450515e-23 
-3.705318e-23 
-3.130523e-23 
-1.084280e-23 
3.641936e-23 
-7.012897e-24 
2.142895e-23 
-7.891792e-25 
-1.192568e-23 
-1.525691e-24 
-1.566603e-23 
-3.733642e-23 
-4.571325e-23 
-5.294695e-23 
-6.926678e-23 
-5.665440e-23 
-4.364984e-23 
-2.347532e-23 
-3.383207e-24 
8.866587e-24 
2.473263e-23 
1.363455e-23 
1.447591e-23 
-9.692075e-24 
-8.523664e-24 
-1.678264e-23 
6.029301e-24 
1.836999e-23 
3.256708e-23 
2.708538e-23 
1.227335e-23 
4.057457e-24 
-2.019437e-24 
7.961788e-24 
7.934687e-24 
1.019699e-23 
2.965858e-24 
1.189519e-25 
1.635842e-24 
3.290887e-24 
5.038719e-24 
8.357928e-25 
-7.605601e-25 
-7.156749e-25 
5.681256e-25 
-8.198382e-25 
-2.149839e-24 
-1.968719e-24 
-1.959086e-24 
-1.493137e-24 
-1.774211e-24 
-1.518708e-24 
-1.564447e-24 
-1.309245e-24 
-9.064874e-25 
-7.715004e-25 
-7.472572e-25 
-7.635846e-25 
-5.622918e-25 
-4.444337e-25 
-3.348787e-25 
-4.593145e-25 
-3.370953e-25 
-1.596208e-25 
-2.864850e-25 
-1.394897e-25 
-1.351749e-25 
-1.226940e-25 
-1.312594e-25 
-1.397958e-25 
-2.113205e-25 
-8.874934e-26 
-8.451653e-26 
-1.416544e-25 
-1.428759e-25 
-1.637557e-25 
-1.175072e-25 
6.463457e-26 
-2.710934e-25 
-2.509139e-25 
7.699356e-26 
-9.117534e-26 
-1.405226e-25 
-2.532294e-25 
-3.100608e-26 
-1.859758e-25 
-6.113440e-25 
-1.315935e-25 
-5.056799e-26 
-7.024720e-25 
-1.129499e-24 
-3.922258e-25 
-2.047802e-25 
-1.545973e-24 
-1.778118e-24 
-8.440815e-25 
-1.477040e-24 
-1.591946e-24 
-5.375199e-24 
-3.785361e-24 
-2.527299e-24 
-6.919640e-24 
-7.896326e-24 
-1.652778e-23 
-8.685487e-24 
-1.037900e-23 
-1.093789e-23 
-2.456175e-23 
-3.791996e-23 
-2.526586e-23 
-1.062472e-23 
1.826157e-23 
-1.250387e-24 
-2.162311e-23 
-6.125927e-23 
-5.152901e-23 
-1.760124e-23 
4.118685e-23 
7.894379e-23 
7.240610e-23 
3.512389e-23 
-3.243676e-23 
-6.674656e-23 
-8.402087e-23 
-3.879422e-23 
1.051985e-23 
7.563322e-23 
8.651841e-23 
1.170902e-22 
4.263413e-23 
-8.449688e-24 
-9.559370e-23 
-1.183573e-22 
-2.083210e-22 
-1.927162e-22 
-2.138630e-22 
-1.956175e-22 
-1.512897e-22 
-1.054993e-22 
-9.943535e-23 
-4.633051e-23 
-5.756082e-23 
-4.070405e-23 
-6.305259e-23 
-4.485809e-23 
-5.837465e-23 
-4.239628e-23 
-4.670971e-23 
-2.609470e-23 
-1.480431e-23 
6.596186e-24 
2.724541e-23 
2.937613e-23 
2.815632e-23 
2.655024e-24 
2.766478e-24 
-1.783377e-24 
2.082395e-23 
2.316748e-23 
2.313224e-23 
9.124907e-24 
-6.361814e-25 
1.076814e-24 
2.994521e-24 
1.028260e-23 
6.257518e-24 
3.557056e-24 
8.861827e-26 
1.257366e-24 
3.829846e-24 
2.266367e-24 
-6.571436e-25 
-1.814810e-24 
-5.791829e-25 
-1.323445e-24 
-1.974598e-24 
-2.140272e-24 
-2.020432e-24 
-1.855472e-24 
-1.820025e-24 
-1.402545e-24 
-1.197205e-24 
-1.179955e-24 
-1.173937e-24 
-6.705617e-25 
-6.309070e-25 
-6.610389e-25 
-6.561218e-25 
-4.931506e-25 
-2.656697e-25 
-4.760875e-25 
-2.781888e-25 
-2.214915e-25 
-2.231827e-25 
-1.494132e-25 
-2.290119e-25 
-5.365176e-26 
-1.267884e-25 
-2.262876e-25 
-6.249744e-26 
-2.081249e-25 
-2.843034e-25 
-2.434210e-26 
-1.680755e-25 
-1.985440e-25 
-2.493965e-25 
-2.332651e-25 
8.969450e-26 
-2.593642e-25 
-3.109213e-25 
-1.209614e-26 
-7.033785e-26 
-2.140592e-25 
-3.137416e-25 
1.656930e-25 
-1.526494e-25 
-6.599795e-25 
-3.971233e-25 
1.223040e-25 
-1.792090e-25 
-1.710316e-24 
-8.857764e-25 
3.474153e-25 
-1.378861e-24 
-1.849360e-24 
-4.086647e-24 
-2.153749e-24 
-1.905600e-25 
-7.176352e-24 
-7.413670e-24 
-1.381141e-23 
-8.452851e-24 
-1.001374e-23 
-1.981001e-23 
-2.639685e-23 
-3.580045e-23 
-1.220683e-23 
-8.398164e-24 
-5.395377e-24 
-4.239039e-23 
-6.217998e-23 
-5.562006e-23 
-1.615494e-23 
3.888690e-23 
4.839599e-23 
3.520567e-23 
-3.343198e-23 
-6.268540e-23 
-8.485775e-23 
-2.800373e-23 
2.853360e-23 
1.072270e-22 
1.305265e-22 
1.258524e-22 
3.878417e-23 
-1.269120e-23 
-1.286931e-22 
-2.094058e-22 
-2.458917e-22 
-2.522537e-22 
-2.826403e-22 
-2.354237e-22 
-2.768412e-22 
-2.271218e-22 
-2.820795e-22 
-2.191681e-22 
-2.309717e-22 
-1.889573e-22 
-1.452659e-22 
-1.190801e-22 
-8.825646e-23 
-7.188831e-23 
-6.696152e-23 
-4.430655e-23 
-4.727269e-23 
-2.007336e-23 
-2.947492e-23 
-1.283387e-23 
-3.295250e-23 
-1.686754e-23 
-7.399464e-24 
2.547405e-23 
4.013872e-23 
3.531979e-23 
2.068889e-23 
-8.482383e-25 
6.096004e-24 
8.424374e-24 
2.078741e-23 
1.234705e-23 
6.419899e-24 
-1.722536e-25 
-5.064311e-25 
5.474278e-24 
6.829013e-24 
6.561206e-24 
1.512250e-24 
-5.452394e-25 
1.275998e-24 
2.217006e-24 
-4.328022e-25 
-2.008069e-24 
-1.637812e-24 
-1.757491e-24 
-2.190156e-24 
-2.065804e-24 
-1.789278e-24 
-1.725680e-24 
-1.784765e-24 
-1.625862e-24 
-7.763559e-25 
-8.723839e-25 
-1.222727e-24 
-7.857490e-25 
-5.598168e-25 
-5.262740e-25 
-7.044270e-25 
-4.413271e-25 
-3.297243e-25 
-3.745391e-25 
-2.758667e-25 
-2.892587e-25 
-1.299386e-25 
-2.214816e-25 
-1.956376e-25 
-1.689876e-25 
-1.480333e-25 
-3.039475e-25 
-1.815858e-25 
-1.000839e-25 
-2.719045e-25 
-3.237909e-25 
-1.630995e-25 
-2.669548e-25 
-1.337601e-25 
-3.241336e-25 
-4.391548e-25 
1.440259e-25 
-2.650492e-25 
-3.612865e-25 
1.088445e-25 
5.796969e-26 
-2.473581e-25 
-2.280632e-25 
5.080866e-25 
2.558146e-25 
-3.755667e-25 
-1.119329e-24 
1.589316e-25 
1.305677e-24 
-1.795044e-24 
-1.201752e-24 
-1.720292e-24 
-5.752010e-25 
1.020543e-24 
-7.364092e-24 
-6.090012e-24 
-9.031973e-24 
-7.183970e-24 
-8.370987e-24 
-2.346668e-23 
-2.441299e-23 
-2.960724e-23 
-1.099045e-23 
-1.883986e-23 
-3.733234e-23 
-5.897605e-23 
-5.869561e-23 
-1.477867e-23 
8.288895e-24 
2.463771e-23 
-2.712150e-23 
-6.130024e-23 
-9.737727e-23 
-5.956349e-23 
-2.883978e-24 
6.971999e-23 